<VTKFile type="UnstructuredGrid"  version="0.1"   >
<UnstructuredGrid>  
<Piece  NumberOfPoints="      312"  NumberOfCells="      468">  
<Points>  
<DataArray  type="Float64"  NumberOfComponents="3"  format="ascii">  
 13.839100 12.873900 0.000000 
 13.623200 12.606700 0.000000 
 13.874600 12.666100 0.000000 
 13.742100 12.401000 0.000000 
 13.910000 12.458200 0.000000 
 10.547900 14.172600 0.000000 
 10.355600 14.565700 0.000000 
 10.326900 14.164100 0.000000 
 10.621100 14.520300 0.000000 
 10.694300 14.868000 0.000000 
 10.384300 14.967300 0.000000 
 10.767400 15.215800 0.000000 
 10.413000 15.368900 0.000000 
 9.963150 11.221800 0.000000 
 10.115600 11.587700 0.000000 
 9.878450 11.540300 0.000000 
 10.226700 11.350200 0.000000 
 10.262900 11.017800 0.000000 
 10.047900 10.903300 0.000000 
 10.132600 10.584800 0.000000 
 10.469000 10.395900 0.000000 
 10.217300 10.266300 0.000000 
 10.480900 10.629600 0.000000 
 10.497700 10.960200 0.000000 
 10.514500 11.290900 0.000000 
 10.330500 11.612300 0.000000 
 10.531300 11.621500 0.000000 
 10.750000 10.436100 0.000000 
 11.415600 10.974000 0.000000 
 11.156800 11.211600 0.000000 
 11.134500 10.911800 0.000000 
 11.275500 10.648000 0.000000 
 11.180300 11.728000 0.000000 
 11.085100 11.490700 0.000000 
 11.282100 11.568300 0.000000 
 10.955000 11.666500 0.000000 
 10.782000 11.450500 0.000000 
 10.847800 11.195000 0.000000 
 10.913600 10.939500 0.000000 
 10.979300 10.684000 0.000000 
 11.045100 10.428500 0.000000 
 11.328500 10.447100 0.000000 
 11.574800 10.564800 0.000000 
 11.782600 10.783000 0.000000 
 11.615800 11.044800 0.000000 
 11.449000 11.306500 0.000000 
 11.986700 10.994400 0.000000 
 11.840200 11.314000 0.000000 
 11.693700 11.633600 0.000000 
 11.386000 11.822300 0.000000 
 11.547200 11.953200 0.000000 
 11.834300 11.777400 0.000000 
 11.639200 12.124300 0.000000 
 12.029400 11.430500 0.000000 
 12.224500 11.083700 0.000000 
 12.093300 11.830400 0.000000 
 12.345200 11.586500 0.000000 
 12.510600 11.064700 0.000000 
 12.663100 11.421500 0.000000 
 12.799100 11.165100 0.000000 
 12.962000 11.398200 0.000000 
 12.955400 11.676800 0.000000 
 12.666100 11.823000 0.000000 
 12.331100 11.992500 0.000000 
 11.996000 12.161900 0.000000 
 11.661000 12.331300 0.000000 
 13.010000 11.908700 0.000000 
 12.908600 13.287500 0.000000 
 12.747700 12.847900 0.000000 
 13.109900 12.946300 0.000000 
 12.584700 13.154500 0.000000 
 12.385600 12.749500 0.000000 
 12.260800 13.021400 0.000000 
 12.023400 12.651000 0.000000 
 11.936900 12.888300 0.000000 
 11.661200 12.775000 0.000000 
 11.661300 12.552600 0.000000 
 13.371400 12.646600 0.000000 
 13.122400 12.661600 0.000000 
 13.360800 12.414000 0.000000 
 13.134900 12.377000 0.000000 
 13.352900 12.238100 0.000000 
 13.147400 12.092300 0.000000 
 13.611900 12.356600 0.000000 
 11.364700 15.866000 0.000000 
 11.426000 16.340900 0.000000 
 11.153700 16.262600 0.000000 
 11.078200 15.945400 0.000000 
 15.226600 14.859800 0.000000 
 15.662200 14.943400 0.000000 
 15.451000 15.128600 0.000000 
 15.416800 14.669800 0.000000 
 15.002100 14.590900 0.000000 
 15.171300 14.396200 0.000000 
 14.839700 15.075400 0.000000 
 14.713100 14.713900 0.000000 
 15.215500 15.288800 0.000000 
 14.966300 15.437000 0.000000 
 14.540000 15.166100 0.000000 
 14.710800 15.581400 0.000000 
 14.369200 14.750700 0.000000 
 14.050300 15.141200 0.000000 
 14.004500 14.759900 0.000000 
 14.450300 15.721000 0.000000 
 14.219900 15.627500 0.000000 
 13.989500 15.534000 0.000000 
 13.549000 15.355300 0.000000 
 13.108500 15.176500 0.000000 
 13.347500 14.928300 0.000000 
 13.652600 14.799600 0.000000 
 13.094400 16.273900 0.000000 
 13.191200 15.913800 0.000000 
 13.370800 16.189700 0.000000 
 12.727400 15.990300 0.000000 
 12.816500 16.340700 0.000000 
 12.892200 15.454500 0.000000 
 12.638200 15.639900 0.000000 
 12.283400 16.035800 0.000000 
 12.308000 15.657700 0.000000 
 12.537800 16.388000 0.000000 
 12.258800 16.413800 0.000000 
 11.850500 16.018400 0.000000 
 11.702200 16.392200 0.000000 
 11.616400 15.648800 0.000000 
 11.946000 15.611800 0.000000 
 11.980000 16.415900 0.000000 
 10.888800 16.160000 0.000000 
 10.731000 15.808900 0.000000 
 10.633900 16.036100 0.000000 
 10.389400 15.895000 0.000000 
 10.407800 15.590600 0.000000 
 10.155200 15.740700 0.000000 
 9.321390 11.895300 0.000000 
 9.582190 11.700700 0.000000 
 9.546900 11.939100 0.000000 
 9.459500 12.115700 0.000000 
 9.252960 12.134600 0.000000 
 9.180660 12.000400 0.000000 
 9.039940 12.105400 0.000000 
 11.120200 14.864200 0.000000 
 11.170800 15.216100 0.000000 
 11.083700 14.609500 0.000000 
 11.047100 14.354900 0.000000 
 10.778100 14.130700 0.000000 
 12.075900 15.059600 0.000000 
 11.981200 14.453900 0.000000 
 12.292000 14.802000 0.000000 
 11.694200 14.590600 0.000000 
 11.792200 15.267300 0.000000 
 11.407200 14.727400 0.000000 
 11.491600 15.306500 0.000000 
 12.298700 13.760000 0.000000 
 12.765900 13.617300 0.000000 
 12.657200 13.934600 0.000000 
 12.387200 13.480800 0.000000 
 11.940100 13.585400 0.000000 
 12.008400 13.344300 0.000000 
 11.581500 13.410700 0.000000 
 11.629700 13.207800 0.000000 
 11.653500 12.994600 0.000000 
 14.436600 13.173000 0.000000 
 14.183700 12.817100 0.000000 
 14.509300 12.915400 0.000000 
 14.105800 13.098200 0.000000 
 14.232600 12.553300 0.000000 
 14.565100 12.652400 0.000000 
 14.892900 12.765900 0.000000 
 14.832800 12.999500 0.000000 
 14.772600 13.233100 0.000000 
 15.201600 12.904300 0.000000 
 15.127900 13.156900 0.000000 
 15.054300 13.409500 0.000000 
 15.234800 13.709300 0.000000 
 15.337500 13.297000 0.000000 
 15.470700 13.498200 0.000000 
 15.476600 13.077500 0.000000 
 15.706500 13.287200 0.000000 
 15.882600 13.526000 0.000000 
 15.630200 13.743100 0.000000 
 15.996300 13.786300 0.000000 
 15.657800 14.062100 0.000000 
 16.039100 14.060700 0.000000 
 15.276400 14.063500 0.000000 
 16.004700 14.340500 0.000000 
 15.612500 14.381400 0.000000 
 15.901700 14.610000 0.000000 
 11.788700 13.777800 0.000000 
 11.498400 13.604100 0.000000 
 12.079000 13.951600 0.000000 
 12.558300 14.238500 0.000000 
 11.819500 14.272700 0.000000 
 12.444700 14.528000 0.000000 
 11.502900 13.918100 0.000000 
 11.206700 13.924700 0.000000 
 11.375500 13.775300 0.000000 
 11.002600 14.045600 0.000000 
 9.714110 15.397900 0.000000 
 10.099000 15.334000 0.000000 
 9.930380 15.574800 0.000000 
 9.713240 14.997700 0.000000 
 10.073600 14.973800 0.000000 
 9.505400 15.210600 0.000000 
 9.303300 15.013600 0.000000 
 9.578800 14.708300 0.000000 
 10.054300 14.613100 0.000000 
 9.854300 14.403100 0.000000 
 10.129800 14.097800 0.000000 
 9.706900 14.123800 0.000000 
 9.970830 13.967600 0.000000 
 9.442970 14.280100 0.000000 
 9.179030 14.436300 0.000000 
 9.106850 14.807300 0.000000 
 8.915100 14.592600 0.000000 
 9.697300 13.870800 0.000000 
 9.851230 13.791600 0.000000 
 9.471900 13.986800 0.000000 
 9.246500 14.102700 0.000000 
 8.986800 14.236300 0.000000 
 8.727110 14.369900 0.000000 
 9.759630 13.610000 0.000000 
 8.363620 13.902900 0.000000 
 8.796040 13.895900 0.000000 
 8.542120 14.139900 0.000000 
 8.599120 13.521400 0.000000 
 8.198950 13.658800 0.000000 
 8.321450 13.265400 0.000000 
 8.055620 13.407500 0.000000 
 8.587270 13.123200 0.000000 
 8.984230 13.355000 0.000000 
 8.853100 12.981100 0.000000 
 9.115370 13.728800 0.000000 
 8.145440 12.587300 0.000000 
 7.862930 12.883100 0.000000 
 7.828560 12.609900 0.000000 
 8.139680 12.943300 0.000000 
 8.444440 12.867100 0.000000 
 8.462310 12.564800 0.000000 
 8.748160 12.776200 0.000000 
 8.779180 12.542200 0.000000 
 9.055730 12.872700 0.000000 
 9.096060 12.519700 0.000000 
 9.258360 12.764400 0.000000 
 7.941110 13.149000 0.000000 
 7.885870 12.046600 0.000000 
 8.056330 12.342600 0.000000 
 7.840170 12.330000 0.000000 
 8.159570 12.112200 0.000000 
 8.344530 12.367400 0.000000 
 8.433270 12.177800 0.000000 
 8.706970 12.243500 0.000000 
 8.980670 12.309100 0.000000 
 8.762100 12.021400 0.000000 
 8.949530 12.161400 0.000000 
 8.559720 11.870300 0.000000 
 8.369810 11.966800 0.000000 
 8.141540 11.837400 0.000000 
 7.953890 11.763300 0.000000 
 8.043210 11.484700 0.000000 
 8.357340 11.719200 0.000000 
 9.628670 10.620000 0.000000 
 9.694410 11.035400 0.000000 
 9.385690 10.860200 0.000000 
 9.157050 10.605800 0.000000 
 9.400030 10.365600 0.000000 
 9.871640 10.379800 0.000000 
 9.676280 11.546100 0.000000 
 9.420820 11.287700 0.000000 
 9.165360 11.029200 0.000000 
 8.909890 10.770800 0.000000 
 8.880950 10.328800 0.000000 
 8.654430 10.512400 0.000000 
 9.140420 10.179100 0.000000 
 9.422630 10.078500 0.000000 
 9.706910 10.051100 0.000000 
 9.972540 10.120500 0.000000 
 8.293950 10.960500 0.000000 
 8.376100 11.387200 0.000000 
 8.155880 11.215500 0.000000 
 8.722100 10.994000 0.000000 
 8.741750 11.360000 0.000000 
 8.459450 10.724600 0.000000 
 9.108280 11.349400 0.000000 
 9.373230 11.585900 0.000000 
 9.070180 11.625700 0.000000 
 8.713760 11.672400 0.000000 
 10.700400 10.953800 0.000000 
 10.765600 10.678900 0.000000 
 10.734800 11.633800 0.000000 
 12.138500 12.398600 0.000000 
 12.517000 12.370500 0.000000 
 12.855800 12.206600 0.000000 
 13.457300 15.787200 0.000000 
 13.645200 16.090200 0.000000 
 13.743400 15.852600 0.000000 
 13.723400 15.660600 0.000000 
 13.976200 15.745800 0.000000 
 14.185600 15.853800 0.000000 
 13.917000 15.977500 0.000000 
 11.542500 14.382500 0.000000 
 11.294800 14.209800 0.000000 
 11.661200 14.095400 0.000000 
 9.512360 13.757500 0.000000 
 9.292440 13.830600 0.000000 
 9.338380 13.558600 0.000000 
 9.527760 13.535700 0.000000 
 9.384330 13.286500 0.000000 
 9.430270 13.014400 0.000000 
 9.574700 13.241300 0.000000 
 9.676580 13.433400 0.000000 
 9.161640 13.117900 0.000000 
 8.920990 11.985600 0.000000 
 9.079880 11.949800 0.000000 
</DataArray>  
</Points>  
<Cells>  
<DataArray  type="Int32"  Name="connectivity"  format="ascii">  
        0         1         2  
        1         2         3  
        2         3         4  
[...]
<PointData  Scalars="U"> 
<DataArray  type="Float64"  Name="U"  format="ascii">	 
 1.426730e+00 
 1.374390e+00 
 1.418458e+00 
 1.384971e+00 
 1.414920e+00 
 1.849535e+00 
 2.034070e+00 
 1.853364e+00 
 1.927511e+00 
 1.918304e+00 
 1.981738e+00 
 1.907446e+00 
 1.953255e+00 
 3.827848e-01 
 4.719162e-01 
 3.755406e-01 
 4.808449e-01 
 4.632717e-01 
 3.920855e-01 
 3.913151e-01 
 4.529437e-01 
 3.625016e-01 
 4.907213e-01 
 5.218821e-01 
 5.517520e-01 
 5.339134e-01 
 5.764968e-01 
 5.526561e-01 
 7.511818e-01 
 6.983820e-01 
 6.762518e-01 
 6.948893e-01 
 7.248998e-01 
 6.907134e-01 
 7.548820e-01 
 6.560157e-01 
 6.171855e-01 
 6.222235e-01 
 6.238414e-01 
 6.257282e-01 
 6.378878e-01 
 6.995318e-01 
 7.503244e-01 
 8.197499e-01 
 8.089605e-01 
 7.867080e-01 
 9.149888e-01 
 9.043851e-01 
 9.047515e-01 
 8.217952e-01 
 9.198666e-01 
 9.746110e-01 
 1.011255e+00 
 9.754204e-01 
 1.012503e+00 
 1.053489e+00 
 1.074722e+00 
 1.081233e+00 
 1.118978e+00 
 1.121136e+00 
 1.143241e+00 
 1.170624e+00 
 1.158676e+00 
 1.132203e+00 
 1.102542e+00 
 1.088778e+00 
 1.215815e+00 
 1.396933e+00 
 1.328120e+00 
 1.339906e+00 
 1.380629e+00 
 1.289094e+00 
 1.343167e+00 
 1.231812e+00 
 1.286913e+00 
 1.225025e+00 
 1.156542e+00 
 1.329536e+00 
 1.319004e+00 
 1.321630e+00 
 1.292160e+00 
 1.311773e+00 
 1.266043e+00 
 1.360820e+00 
 1.803160e+00 
 1.797502e+00 
 1.812828e+00 
 1.827300e+00 
 1.661053e+00 
 1.651653e+00 
 1.658974e+00 
 1.651466e+00 
 1.663744e+00 
 1.648127e+00 
 1.678517e+00 
 1.682506e+00 
 1.667356e+00 
 1.677261e+00 
 1.690835e+00 
 1.687474e+00 
 1.698503e+00 
 1.707990e+00 
 1.710203e+00 
 1.697164e+00 
 1.703861e+00 
 1.710704e+00 
 1.721403e+00 
 1.728308e+00 
 1.722797e+00 
 1.717858e+00 
 1.739873e+00 
 1.735256e+00 
 1.731663e+00 
 1.750118e+00 
 1.748326e+00 
 1.737898e+00 
 1.750604e+00 
 1.766000e+00 
 1.766554e+00 
 1.756886e+00 
 1.765786e+00 
 1.782280e+00 
 1.785295e+00 
 1.789636e+00 
 1.780063e+00 
 1.775074e+00 
 1.833173e+00 
 1.876666e+00 
 1.864950e+00 
 1.897795e+00 
 1.932199e+00 
 1.930100e+00 
 1.018333e-01 
 1.901935e-01 
 1.370078e-01 
 1.148508e-01 
 7.679714e-02 
 4.332885e-02 
 -4.689006e-02 
 1.828111e+00 
 1.825396e+00 
 1.817515e+00 
 1.790165e+00 
 1.805169e+00 
 1.732487e+00 
 1.675558e+00 
 1.697901e+00 
 1.721164e+00 
 1.763329e+00 
 1.771962e+00 
 1.788127e+00 
 1.517553e+00 
 1.471663e+00 
 1.546011e+00 
 1.451654e+00 
 1.486586e+00 
 1.419212e+00 
 1.438433e+00 
 1.366569e+00 
 1.295728e+00 
 1.492598e+00 
 1.458610e+00 
 1.493502e+00 
 1.460642e+00 
 1.456579e+00 
 1.492974e+00 
 1.529371e+00 
 1.529664e+00 
 1.530722e+00 
 1.563159e+00 
 1.565013e+00 
 1.570135e+00 
 1.603352e+00 
 1.586983e+00 
 1.602954e+00 
 1.588710e+00 
 1.606575e+00 
 1.619019e+00 
 1.618431e+00 
 1.626772e+00 
 1.630269e+00 
 1.632507e+00 
 1.627950e+00 
 1.637952e+00 
 1.640677e+00 
 1.642863e+00 
 1.547722e+00 
 1.511132e+00 
 1.570044e+00 
 1.609958e+00 
 1.656042e+00 
 1.660906e+00 
 1.614478e+00 
 1.667647e+00 
 1.587308e+00 
 1.741102e+00 
 1.970625e+00 
 1.971209e+00 
 1.954892e+00 
 2.004828e+00 
 2.027037e+00 
 1.976867e+00 
 1.946839e+00 
 2.057755e+00 
 2.216105e+00 
 2.495600e+00 
 1.795388e+00 
 3.874548e+00 
 1.343937e+01 
 2.265145e+00 
 1.826013e+00 
 1.868243e+00 
 1.704072e+00 
 1.540359e+01 
 1.403871e+01 
 2.572474e+00 
 1.792538e+00 
 1.524851e+00 
 1.419526e+00 
 1.198732e+01 
 7.367881e-01 
 9.953851e-01 
 1.066362e+00 
 4.675903e-01 
 4.762042e-01 
 2.502890e-01 
 2.885633e-01 
 4.164100e-02 
 -2.196188e-02 
 -4.374769e-01 
 8.547196e-01 
 4.474812e-02 
 1.096382e-01 
 6.831169e-02 
 1.222949e-01 
 1.219348e-03 
 -7.202822e-02 
 -3.278376e-01 
 -3.396092e-01 
 -1.086061e+00 
 -8.824770e-01 
 -1.847974e+00 
 1.769271e-01 
 3.591502e-02 
 3.499963e-02 
 4.423750e-02 
 2.107380e-02 
 -2.191036e-02 
 -3.412441e-02 
 -1.518005e-01 
 -4.034278e-01 
 -7.488103e-02 
 -1.865134e-01 
 -2.456185e-03 
 3.779400e-03 
 3.308297e-02 
 4.031983e-02 
 5.730886e-02 
 3.281579e-02 
 2.751729e-01 
 2.970351e-01 
 2.257219e-01 
 1.976670e-01 
 2.345695e-01 
 3.099983e-01 
 2.678472e-01 
 2.074246e-01 
 1.742941e-01 
 1.599302e-01 
 1.776912e-01 
 1.515901e-01 
 2.061848e-01 
 2.343206e-01 
 2.642638e-01 
 3.017444e-01 
 1.009769e-01 
 6.931094e-02 
 7.728610e-02 
 1.243480e-01 
 8.438257e-02 
 1.255954e-01 
 1.296628e-01 
 1.594904e-01 
 7.508150e-02 
 2.972408e-02 
 5.732027e-01 
 5.708342e-01 
 6.115545e-01 
 1.183636e+00 
 1.226554e+00 
 1.240142e+00 
 1.726964e+00 
 1.723461e+00 
 1.719283e+00 
 1.718734e+00 
 1.711996e+00 
 1.706451e+00 
 1.715162e+00 
 1.707776e+00 
 1.716561e+00 
 1.636974e+00 
 -1.590347e-01 
 1.233107e+00 
 3.092582e-01 
 1.336676e+01 
 -2.228967e+00 
 -3.768477e+00 
 1.116396e+01 
 1.227489e+01 
 -1.422023e+00 
 -6.062756e-02 
 9.749067e-03 
</DataArray> 
</PointData> 
</Piece> 
 </UnstructuredGrid> 
 </VTKFile>